<?xml version='1.0' encoding='utf-8'?>
<fcd-export xmlns:xsi="http://www.w3.org/2001/XMLSchema-instance">
 <timestep time="0.00" />
 <timestep time="1.00">
  <vehicle id="v0" x="378.95" y="36.14" speed="16.67" />
 </timestep>
 <timestep time="2.00">
  <vehicle id="v0" x="362.28" y="35.97" speed="16.67" />
 </timestep>
 <timestep time="3.00">
  <vehicle id="v0" x="345.61" y="36.26" speed="16.67" />
 </timestep>
 <timestep time="4.00">
  <vehicle id="v0" x="328.95" y="36.04" speed="16.67" />
 </timestep>
 <timestep time="5.00">
  <vehicle id="v0" x="312.28" y="35.67" speed="16.67" />
 </timestep>
 <timestep time="6.00">
  <vehicle id="v0" x="295.61" y="35.32" speed="16.67" />
 </timestep>
 <timestep time="7.00">
  <vehicle id="v0" x="278.95" y="35.62" speed="16.67" />
 </timestep>
 <timestep time="8.00">
  <vehicle id="v0" x="262.28" y="36.29" speed="16.67" />
 </timestep>
 <timestep time="9.00">
  <vehicle id="v0" x="245.61" y="36.41" speed="16.67" />
 </timestep>
 <timestep time="10.00">
  <vehicle id="v0" x="228.95" y="36.21" speed="16.67" />
  <vehicle id="v1" x="382.32" y="29.90" speed="10.00" />
 </timestep>
 <timestep time="11.00">
  <vehicle id="v0" x="212.28" y="35.90" speed="16.67" />
  <vehicle id="v1" x="372.32" y="30.08" speed="10.00" />
 </timestep>
 <timestep time="12.00">
  <vehicle id="v0" x="195.61" y="35.42" speed="16.67" />
  <vehicle id="v1" x="362.32" y="29.88" speed="10.00" />
 </timestep>
 <timestep time="13.00">
  <vehicle id="v0" x="178.95" y="35.91" speed="16.67" />
  <vehicle id="v1" x="352.32" y="30.52" speed="10.00" />
 </timestep>
 <timestep time="14.00">
  <vehicle id="v0" x="162.28" y="35.95" speed="16.67" />
  <vehicle id="v1" x="342.32" y="29.82" speed="10.00" />
 </timestep>
 <timestep time="15.00">
  <vehicle id="v0" x="145.61" y="36.26" speed="16.67" />
  <vehicle id="v1" x="332.32" y="29.76" speed="10.00" />
 </timestep>
 <timestep time="16.00">
  <vehicle id="v0" x="128.95" y="36.26" speed="16.67" />
  <vehicle id="v1" x="322.32" y="29.68" speed="10.00" />
 </timestep>
 <timestep time="17.00">
  <vehicle id="v0" x="112.28" y="36.49" speed="16.67" />
  <vehicle id="v1" x="312.32" y="30.06" speed="10.00" />
 </timestep>
 <timestep time="18.00">
  <vehicle id="v0" x="95.61" y="35.87" speed="16.67" />
  <vehicle id="v1" x="302.32" y="30.41" speed="10.00" />
 </timestep>
 <timestep time="19.00">
  <vehicle id="v0" x="78.95" y="35.90" speed="16.67" />
  <vehicle id="v1" x="292.32" y="30.22" speed="10.00" />
 </timestep>
 <timestep time="20.00">
  <vehicle id="v0" x="62.28" y="35.59" speed="16.67" />
  <vehicle id="v1" x="282.32" y="29.55" speed="10.00" />
  <vehicle id="v2" x="-259.26" y="36.19" speed="22.22" />
 </timestep>
 <timestep time="21.00">
  <vehicle id="v0" x="45.61" y="36.23" speed="16.67" />
  <vehicle id="v1" x="272.32" y="29.95" speed="10.00" />
  <vehicle id="v2" x="-237.04" y="36.13" speed="22.22" />
 </timestep>
 <timestep time="22.00">
  <vehicle id="v0" x="28.95" y="35.65" speed="16.67" />
  <vehicle id="v1" x="262.32" y="29.68" speed="10.00" />
  <vehicle id="v2" x="-214.81" y="36.03" speed="22.22" />
 </timestep>
 <timestep time="23.00">
  <vehicle id="v0" x="12.28" y="35.97" speed="16.67" />
  <vehicle id="v1" x="252.32" y="29.76" speed="10.00" />
  <vehicle id="v2" x="-192.59" y="36.34" speed="22.22" />
 </timestep>
 <timestep time="24.00">
  <vehicle id="v0" x="-4.39" y="35.55" speed="16.67" />
  <vehicle id="v1" x="242.32" y="30.53" speed="10.00" />
  <vehicle id="v2" x="-170.37" y="36.32" speed="22.22" />
 </timestep>
 <timestep time="25.00">
  <vehicle id="v0" x="-21.05" y="36.01" speed="16.67" />
  <vehicle id="v1" x="232.32" y="30.34" speed="10.00" />
  <vehicle id="v2" x="-148.15" y="35.77" speed="22.22" />
 </timestep>
 <timestep time="26.00">
  <vehicle id="v0" x="-37.72" y="35.81" speed="16.67" />
  <vehicle id="v1" x="222.32" y="30.58" speed="10.00" />
  <vehicle id="v2" x="-125.92" y="36.10" speed="22.22" />
 </timestep>
 <timestep time="27.00">
  <vehicle id="v0" x="-54.39" y="36.09" speed="16.67" />
  <vehicle id="v1" x="212.32" y="30.19" speed="10.00" />
  <vehicle id="v2" x="-103.70" y="36.08" speed="22.22" />
 </timestep>
 <timestep time="28.00">
  <vehicle id="v0" x="-71.05" y="35.74" speed="16.67" />
  <vehicle id="v1" x="202.32" y="30.34" speed="10.00" />
  <vehicle id="v2" x="-81.48" y="35.68" speed="22.22" />
 </timestep>
 <timestep time="29.00">
  <vehicle id="v0" x="-87.72" y="35.99" speed="16.67" />
  <vehicle id="v1" x="192.32" y="30.04" speed="10.00" />
  <vehicle id="v2" x="-59.26" y="36.12" speed="22.22" />
 </timestep>
 <timestep time="30.00">
  <vehicle id="v0" x="-104.39" y="35.96" speed="16.67" />
  <vehicle id="v1" x="182.32" y="29.94" speed="10.00" />
  <vehicle id="v2" x="-37.04" y="35.66" speed="22.22" />
 </timestep>
 <timestep time="31.00">
  <vehicle id="v0" x="-121.05" y="36.02" speed="16.67" />
  <vehicle id="v1" x="172.32" y="29.54" speed="10.00" />
  <vehicle id="v2" x="-14.81" y="35.79" speed="22.22" />
 </timestep>
 <timestep time="32.00">
  <vehicle id="v0" x="-137.72" y="35.72" speed="16.67" />
  <vehicle id="v1" x="162.32" y="30.04" speed="10.00" />
  <vehicle id="v2" x="7.41" y="35.87" speed="22.22" />
  <vehicle id="v3" x="372.35" y="36.08" speed="16.67" />
 </timestep>
 <timestep time="33.00">
  <vehicle id="v0" x="-154.39" y="36.45" speed="16.67" />
  <vehicle id="v1" x="152.32" y="29.86" speed="10.00" />
  <vehicle id="v2" x="29.63" y="36.37" speed="22.22" />
  <vehicle id="v3" x="355.68" y="35.64" speed="16.67" />
 </timestep>
 <timestep time="34.00">
  <vehicle id="v0" x="-171.05" y="36.06" speed="16.67" />
  <vehicle id="v1" x="142.32" y="29.56" speed="10.00" />
  <vehicle id="v2" x="51.85" y="36.22" speed="22.22" />
  <vehicle id="v3" x="339.02" y="35.77" speed="16.67" />
 </timestep>
 <timestep time="35.00">
  <vehicle id="v0" x="-187.72" y="36.41" speed="16.67" />
  <vehicle id="v1" x="132.32" y="29.97" speed="10.00" />
  <vehicle id="v2" x="74.08" y="36.23" speed="22.22" />
  <vehicle id="v3" x="322.35" y="36.14" speed="16.67" />
 </timestep>
 <timestep time="36.00">
  <vehicle id="v0" x="-204.39" y="36.13" speed="16.67" />
  <vehicle id="v1" x="122.32" y="30.27" speed="10.00" />
  <vehicle id="v2" x="96.30" y="36.25" speed="22.22" />
  <vehicle id="v3" x="305.68" y="36.01" speed="16.67" />
 </timestep>
 <timestep time="37.00">
  <vehicle id="v0" x="-221.05" y="35.81" speed="16.67" />
  <vehicle id="v1" x="112.32" y="30.07" speed="10.00" />
  <vehicle id="v2" x="118.52" y="36.34" speed="22.22" />
  <vehicle id="v3" x="289.02" y="35.87" speed="16.67" />
 </timestep>
 <timestep time="38.00">
  <vehicle id="v0" x="-237.72" y="35.19" speed="16.67" />
  <vehicle id="v1" x="102.32" y="29.76" speed="10.00" />
  <vehicle id="v2" x="140.74" y="35.96" speed="22.22" />
  <vehicle id="v3" x="272.35" y="36.16" speed="16.67" />
 </timestep>
 <timestep time="39.00">
  <vehicle id="v0" x="-254.39" y="36.12" speed="16.67" />
  <vehicle id="v1" x="92.32" y="30.03" speed="10.00" />
  <vehicle id="v2" x="162.96" y="36.19" speed="22.22" />
  <vehicle id="v3" x="255.68" y="36.37" speed="16.67" />
 </timestep>
 <timestep time="40.00">
  <vehicle id="v0" x="-271.05" y="36.03" speed="16.67" />
  <vehicle id="v1" x="82.32" y="29.88" speed="10.00" />
  <vehicle id="v2" x="185.19" y="36.80" speed="22.22" />
  <vehicle id="v3" x="239.02" y="35.56" speed="16.67" />
 </timestep>
 <timestep time="41.00">
  <vehicle id="v0" x="-287.72" y="35.85" speed="16.67" />
  <vehicle id="v1" x="72.32" y="30.42" speed="10.00" />
  <vehicle id="v2" x="207.41" y="36.43" speed="22.22" />
  <vehicle id="v3" x="222.35" y="35.39" speed="16.67" />
 </timestep>
 <timestep time="42.00">
  <vehicle id="v1" x="62.32" y="29.70" speed="10.00" />
  <vehicle id="v2" x="229.63" y="35.85" speed="22.22" />
  <vehicle id="v3" x="205.68" y="35.82" speed="16.67" />
 </timestep>
 <timestep time="43.00">
  <vehicle id="v1" x="52.32" y="30.68" speed="10.00" />
  <vehicle id="v2" x="251.85" y="36.23" speed="22.22" />
  <vehicle id="v3" x="189.02" y="35.45" speed="16.67" />
 </timestep>
 <timestep time="44.00">
  <vehicle id="v1" x="42.32" y="29.90" speed="10.00" />
  <vehicle id="v2" x="274.08" y="36.07" speed="22.22" />
  <vehicle id="v3" x="172.35" y="35.93" speed="16.67" />
 </timestep>
 <timestep time="45.00">
  <vehicle id="v1" x="32.32" y="30.23" speed="10.00" />
  <vehicle id="v2" x="296.30" y="36.31" speed="22.22" />
  <vehicle id="v3" x="155.68" y="35.68" speed="16.67" />
 </timestep>
 <timestep time="46.00">
  <vehicle id="v1" x="22.32" y="30.38" speed="10.00" />
  <vehicle id="v2" x="318.52" y="36.35" speed="22.22" />
  <vehicle id="v3" x="139.02" y="35.58" speed="16.67" />
 </timestep>
 <timestep time="47.00">
  <vehicle id="v1" x="12.32" y="30.06" speed="10.00" />
  <vehicle id="v2" x="340.74" y="36.36" speed="22.22" />
  <vehicle id="v3" x="122.35" y="35.69" speed="16.67" />
  <vehicle id="v4" x="-276.95" y="36.10" speed="13.89" />
 </timestep>
 <timestep time="48.00">
  <vehicle id="v1" x="2.32" y="29.30" speed="10.00" />
  <vehicle id="v2" x="362.96" y="35.86" speed="22.22" />
  <vehicle id="v3" x="105.68" y="36.39" speed="16.67" />
  <vehicle id="v4" x="-263.06" y="35.62" speed="13.89" />
 </timestep>
 <timestep time="49.00">
  <vehicle id="v1" x="-7.68" y="30.19" speed="10.00" />
  <vehicle id="v2" x="385.19" y="35.93" speed="22.22" />
  <vehicle id="v3" x="89.02" y="36.11" speed="16.67" />
  <vehicle id="v4" x="-249.17" y="36.43" speed="13.89" />
 </timestep>
 <timestep time="50.00">
  <vehicle id="v1" x="-17.68" y="30.15" speed="10.00" />
  <vehicle id="v3" x="72.35" y="36.01" speed="16.67" />
  <vehicle id="v4" x="-235.29" y="35.62" speed="13.89" />
 </timestep>
 <timestep time="51.00">
  <vehicle id="v1" x="-27.68" y="29.94" speed="10.00" />
  <vehicle id="v3" x="55.68" y="35.88" speed="16.67" />
  <vehicle id="v4" x="-221.40" y="35.55" speed="13.89" />
 </timestep>
 <timestep time="52.00">
  <vehicle id="v1" x="-37.68" y="30.13" speed="10.00" />
  <vehicle id="v3" x="39.02" y="35.76" speed="16.67" />
  <vehicle id="v4" x="-207.51" y="35.69" speed="13.89" />
 </timestep>
 <timestep time="53.00">
  <vehicle id="v1" x="-47.68" y="30.29" speed="10.00" />
  <vehicle id="v3" x="22.35" y="35.58" speed="16.67" />
  <vehicle id="v4" x="-193.62" y="35.88" speed="13.89" />
 </timestep>
 <timestep time="54.00">
  <vehicle id="v1" x="-57.68" y="29.69" speed="10.00" />
  <vehicle id="v3" x="5.68" y="36.08" speed="16.67" />
  <vehicle id="v4" x="-179.73" y="35.82" speed="13.89" />
 </timestep>
 <timestep time="55.00">
  <vehicle id="v1" x="-67.68" y="29.78" speed="10.00" />
  <vehicle id="v3" x="-10.98" y="36.33" speed="16.67" />
  <vehicle id="v4" x="-165.84" y="36.32" speed="13.89" />
 </timestep>
 <timestep time="56.00">
  <vehicle id="v1" x="-77.68" y="29.32" speed="10.00" />
  <vehicle id="v3" x="-27.65" y="36.00" speed="16.67" />
  <vehicle id="v4" x="-151.95" y="36.07" speed="13.89" />
 </timestep>
 <timestep time="57.00">
  <vehicle id="v1" x="-87.68" y="29.76" speed="10.00" />
  <vehicle id="v3" x="-44.32" y="36.00" speed="16.67" />
  <vehicle id="v4" x="-138.06" y="36.13" speed="13.89" />
 </timestep>
 <timestep time="58.00">
  <vehicle id="v1" x="-97.68" y="29.86" speed="10.00" />
  <vehicle id="v3" x="-60.98" y="35.66" speed="16.67" />
  <vehicle id="v4" x="-124.17" y="36.45" speed="13.89" />
 </timestep>
 <timestep time="59.00">
  <vehicle id="v1" x="-107.68" y="29.99" speed="10.00" />
  <vehicle id="v3" x="-77.65" y="36.01" speed="16.67" />
  <vehicle id="v4" x="-110.29" y="35.66" speed="13.89" />
 </timestep>
 <timestep time="60.00">
  <vehicle id="v1" x="-117.68" y="29.46" speed="10.00" />
  <vehicle id="v3" x="-94.32" y="36.36" speed="16.67" />
  <vehicle id="v4" x="-96.40" y="35.77" speed="13.89" />
 </timestep>
 <timestep time="61.00">
  <vehicle id="v1" x="-127.68" y="30.23" speed="10.00" />
  <vehicle id="v3" x="-110.98" y="35.78" speed="16.67" />
  <vehicle id="v4" x="-82.51" y="36.39" speed="13.89" />
 </timestep>
 <timestep time="62.00">
  <vehicle id="v1" x="-137.68" y="29.79" speed="10.00" />
  <vehicle id="v3" x="-127.65" y="35.77" speed="16.67" />
  <vehicle id="v4" x="-68.62" y="36.52" speed="13.89" />
 </timestep>
 <timestep time="63.00">
  <vehicle id="v1" x="-147.68" y="29.69" speed="10.00" />
  <vehicle id="v3" x="-144.32" y="35.90" speed="16.67" />
  <vehicle id="v4" x="-54.73" y="36.24" speed="13.89" />
 </timestep>
 <timestep time="64.00">
  <vehicle id="v1" x="-157.68" y="29.94" speed="10.00" />
  <vehicle id="v3" x="-160.98" y="35.92" speed="16.67" />
  <vehicle id="v4" x="-40.84" y="35.79" speed="13.89" />
 </timestep>
 <timestep time="65.00">
  <vehicle id="v1" x="-167.68" y="29.83" speed="10.00" />
  <vehicle id="v3" x="-177.65" y="35.67" speed="16.67" />
  <vehicle id="v4" x="-26.95" y="36.38" speed="13.89" />
 </timestep>
 <timestep time="66.00">
  <vehicle id="v1" x="-177.68" y="29.64" speed="10.00" />
  <vehicle id="v3" x="-194.32" y="36.36" speed="16.67" />
  <vehicle id="v4" x="-13.06" y="36.29" speed="13.89" />
 </timestep>
 <timestep time="67.00">
  <vehicle id="v1" x="-187.68" y="29.95" speed="10.00" />
  <vehicle id="v3" x="-210.98" y="36.41" speed="16.67" />
  <vehicle id="v4" x="0.83" y="35.93" speed="13.89" />
 </timestep>
 <timestep time="68.00">
  <vehicle id="v1" x="-197.68" y="30.18" speed="10.00" />
  <vehicle id="v3" x="-227.65" y="35.88" speed="16.67" />
  <vehicle id="v4" x="14.71" y="36.78" speed="13.89" />
 </timestep>
 <timestep time="69.00">
  <vehicle id="v1" x="-207.68" y="30.29" speed="10.00" />
  <vehicle id="v3" x="-244.32" y="36.42" speed="16.67" />
  <vehicle id="v4" x="28.60" y="36.38" speed="13.89" />
 </timestep>
 <timestep time="70.00">
  <vehicle id="v1" x="-217.68" y="30.00" speed="10.00" />
  <vehicle id="v3" x="-260.98" y="35.99" speed="16.67" />
  <vehicle id="v4" x="42.49" y="36.43" speed="13.89" />
 </timestep>
 <timestep time="71.00">
  <vehicle id="v1" x="-227.68" y="30.01" speed="10.00" />
  <vehicle id="v3" x="-277.65" y="35.50" speed="16.67" />
  <vehicle id="v4" x="56.38" y="36.45" speed="13.89" />
 </timestep>
 <timestep time="72.00">
  <vehicle id="v1" x="-237.68" y="29.97" speed="10.00" />
  <vehicle id="v4" x="70.27" y="36.08" speed="13.89" />
 </timestep>
 <timestep time="73.00">
  <vehicle id="v1" x="-247.68" y="30.33" speed="10.00" />
  <vehicle id="v4" x="84.16" y="35.78" speed="13.89" />
 </timestep>
 <timestep time="74.00">
  <vehicle id="v1" x="-257.68" y="30.38" speed="10.00" />
  <vehicle id="v4" x="98.05" y="36.22" speed="13.89" />
 </timestep>
 <timestep time="75.00">
  <vehicle id="v1" x="-267.68" y="29.79" speed="10.00" />
  <vehicle id="v4" x="111.94" y="35.91" speed="13.89" />
 </timestep>
 <timestep time="76.00">
  <vehicle id="v1" x="-277.68" y="30.17" speed="10.00" />
  <vehicle id="v4" x="125.83" y="36.05" speed="13.89" />
 </timestep>
 <timestep time="77.00">
  <vehicle id="v1" x="-287.68" y="30.48" speed="10.00" />
  <vehicle id="v4" x="139.71" y="35.47" speed="13.89" />
 </timestep>
 <timestep time="78.00">
  <vehicle id="v4" x="153.60" y="35.92" speed="13.89" />
 </timestep>
 <timestep time="79.00">
  <vehicle id="v4" x="167.49" y="35.55" speed="13.89" />
 </timestep>
 <timestep time="80.00">
  <vehicle id="v4" x="181.38" y="35.63" speed="13.89" />
 </timestep>
 <timestep time="81.00">
  <vehicle id="v4" x="195.27" y="35.95" speed="13.89" />
 </timestep>
 <timestep time="82.00">
  <vehicle id="v4" x="209.16" y="36.19" speed="13.89" />
 </timestep>
 <timestep time="83.00">
  <vehicle id="v4" x="223.05" y="35.39" speed="13.89" />
 </timestep>
 <timestep time="84.00">
  <vehicle id="v4" x="236.94" y="36.50" speed="13.89" />
 </timestep>
 <timestep time="85.00">
  <vehicle id="v4" x="250.83" y="35.55" speed="13.89" />
 </timestep>
 <timestep time="86.00">
  <vehicle id="v4" x="264.71" y="36.07" speed="13.89" />
 </timestep>
 <timestep time="87.00">
  <vehicle id="v4" x="278.60" y="35.92" speed="13.89" />
 </timestep>
 <timestep time="88.00">
  <vehicle id="v4" x="292.49" y="35.84" speed="13.89" />
 </timestep>
 <timestep time="89.00">
  <vehicle id="v4" x="306.38" y="36.06" speed="13.89" />
 </timestep>
 <timestep time="90.00">
  <vehicle id="v4" x="320.27" y="35.92" speed="13.89" />
 </timestep>
 <timestep time="91.00">
  <vehicle id="v4" x="334.16" y="35.78" speed="13.89" />
 </timestep>
 <timestep time="92.00">
  <vehicle id="v4" x="348.05" y="35.74" speed="13.89" />
  <vehicle id="v5" x="-272.55" y="30.23" speed="13.89" />
 </timestep>
 <timestep time="93.00">
  <vehicle id="v4" x="361.94" y="35.77" speed="13.89" />
  <vehicle id="v5" x="-258.66" y="30.80" speed="13.89" />
 </timestep>
 <timestep time="94.00">
  <vehicle id="v4" x="375.83" y="36.00" speed="13.89" />
  <vehicle id="v5" x="-244.77" y="29.90" speed="13.89" />
 </timestep>
 <timestep time="95.00">
  <vehicle id="v4" x="389.71" y="36.12" speed="13.89" />
  <vehicle id="v5" x="-230.88" y="29.61" speed="13.89" />
 </timestep>
 <timestep time="96.00">
  <vehicle id="v5" x="-216.99" y="29.57" speed="13.89" />
 </timestep>
 <timestep time="97.00">
  <vehicle id="v5" x="-203.10" y="30.30" speed="13.89" />
 </timestep>
 <timestep time="98.00">
  <vehicle id="v5" x="-189.21" y="29.81" speed="13.89" />
 </timestep>
 <timestep time="99.00">
  <vehicle id="v5" x="-175.32" y="29.71" speed="13.89" />
 </timestep>
 <timestep time="100.00">
  <vehicle id="v5" x="-161.43" y="29.73" speed="13.89" />
 </timestep>
 <timestep time="101.00">
  <vehicle id="v5" x="-147.55" y="29.63" speed="13.89" />
  <vehicle id="v6" x="-268.59" y="36.78" speed="13.89" />
 </timestep>
 <timestep time="102.00">
  <vehicle id="v5" x="-133.66" y="29.68" speed="13.89" />
  <vehicle id="v6" x="-254.71" y="35.92" speed="13.89" />
 </timestep>
 <timestep time="103.00">
  <vehicle id="v5" x="-119.77" y="29.95" speed="13.89" />
  <vehicle id="v6" x="-240.82" y="36.01" speed="13.89" />
 </timestep>
 <timestep time="104.00">
  <vehicle id="v5" x="-105.88" y="30.52" speed="13.89" />
  <vehicle id="v6" x="-226.93" y="36.22" speed="13.89" />
 </timestep>
 <timestep time="105.00">
  <vehicle id="v5" x="-91.99" y="29.92" speed="13.89" />
  <vehicle id="v6" x="-213.04" y="35.86" speed="13.89" />
  <vehicle id="v7" x="-276.87" y="15.01" speed="22.22" />
 </timestep>
 <timestep time="106.00">
  <vehicle id="v5" x="-78.10" y="29.28" speed="13.89" />
  <vehicle id="v6" x="-199.15" y="35.57" speed="13.89" />
  <vehicle id="v7" x="-254.64" y="15.24" speed="22.22" />
 </timestep>
 <timestep time="107.00">
  <vehicle id="v5" x="-64.21" y="30.40" speed="13.89" />
  <vehicle id="v6" x="-185.26" y="36.28" speed="13.89" />
  <vehicle id="v7" x="-232.42" y="15.06" speed="22.22" />
 </timestep>
 <timestep time="108.00">
  <vehicle id="v5" x="-50.32" y="29.65" speed="13.89" />
  <vehicle id="v6" x="-171.37" y="36.28" speed="13.89" />
  <vehicle id="v7" x="-210.20" y="14.96" speed="22.22" />
 </timestep>
 <timestep time="109.00">
  <vehicle id="v5" x="-36.43" y="30.12" speed="13.89" />
  <vehicle id="v6" x="-157.48" y="35.75" speed="13.89" />
  <vehicle id="v7" x="-187.98" y="14.69" speed="22.22" />
 </timestep>
 <timestep time="110.00">
  <vehicle id="v5" x="-22.55" y="29.96" speed="13.89" />
  <vehicle id="v6" x="-143.59" y="36.02" speed="13.89" />
  <vehicle id="v7" x="-165.76" y="14.80" speed="22.22" />
 </timestep>
 <timestep time="111.00">
  <vehicle id="v5" x="-8.66" y="29.99" speed="13.89" />
  <vehicle id="v6" x="-129.71" y="36.11" speed="13.89" />
  <vehicle id="v7" x="-143.53" y="14.87" speed="22.22" />
 </timestep>
 <timestep time="112.00">
  <vehicle id="v5" x="5.23" y="30.01" speed="13.89" />
  <vehicle id="v6" x="-115.82" y="36.05" speed="13.89" />
  <vehicle id="v7" x="-121.31" y="14.79" speed="22.22" />
 </timestep>
 <timestep time="113.00">
  <vehicle id="v5" x="19.12" y="29.92" speed="13.89" />
  <vehicle id="v6" x="-101.93" y="35.49" speed="13.89" />
  <vehicle id="v7" x="-99.09" y="15.08" speed="22.22" />
 </timestep>
 <timestep time="114.00">
  <vehicle id="v5" x="33.01" y="30.14" speed="13.89" />
  <vehicle id="v6" x="-88.04" y="36.24" speed="13.89" />
  <vehicle id="v7" x="-76.87" y="14.73" speed="22.22" />
 </timestep>
 <timestep time="115.00">
  <vehicle id="v5" x="46.90" y="30.26" speed="13.89" />
  <vehicle id="v6" x="-74.15" y="35.34" speed="13.89" />
  <vehicle id="v7" x="-54.64" y="15.04" speed="22.22" />
 </timestep>
 <timestep time="116.00">
  <vehicle id="v5" x="60.79" y="30.42" speed="13.89" />
  <vehicle id="v6" x="-60.26" y="35.75" speed="13.89" />
  <vehicle id="v7" x="-32.42" y="14.92" speed="22.22" />
 </timestep>
 <timestep time="117.00">
  <vehicle id="v5" x="74.68" y="30.27" speed="13.89" />
  <vehicle id="v6" x="-46.37" y="36.26" speed="13.89" />
  <vehicle id="v7" x="-10.20" y="14.65" speed="22.22" />
 </timestep>
 <timestep time="118.00">
  <vehicle id="v5" x="88.57" y="30.27" speed="13.89" />
  <vehicle id="v6" x="-32.48" y="35.70" speed="13.89" />
  <vehicle id="v7" x="12.02" y="15.09" speed="22.22" />
 </timestep>
 <timestep time="119.00">
  <vehicle id="v5" x="102.45" y="30.56" speed="13.89" />
  <vehicle id="v6" x="-18.59" y="36.52" speed="13.89" />
  <vehicle id="v7" x="34.24" y="15.23" speed="22.22" />
 </timestep>
 <timestep time="120.00">
  <vehicle id="v5" x="116.34" y="29.86" speed="13.89" />
  <vehicle id="v6" x="-4.71" y="35.75" speed="13.89" />
  <vehicle id="v7" x="56.47" y="14.90" speed="22.22" />
 </timestep>
 <timestep time="121.00">
  <vehicle id="v5" x="130.23" y="29.65" speed="13.89" />
  <vehicle id="v6" x="9.18" y="36.40" speed="13.89" />
  <vehicle id="v7" x="78.69" y="14.92" speed="22.22" />
 </timestep>
 <timestep time="122.00">
  <vehicle id="v5" x="144.12" y="30.14" speed="13.89" />
  <vehicle id="v6" x="23.07" y="36.16" speed="13.89" />
  <vehicle id="v7" x="100.91" y="14.76" speed="22.22" />
 </timestep>
 <timestep time="123.00">
  <vehicle id="v5" x="158.01" y="29.91" speed="13.89" />
  <vehicle id="v6" x="36.96" y="35.67" speed="13.89" />
  <vehicle id="v7" x="123.13" y="14.72" speed="22.22" />
 </timestep>
 <timestep time="124.00">
  <vehicle id="v5" x="171.90" y="30.42" speed="13.89" />
  <vehicle id="v6" x="50.85" y="35.90" speed="13.89" />
  <vehicle id="v7" x="145.36" y="15.25" speed="22.22" />
  <vehicle id="v8" x="-277.49" y="42.61" speed="22.22" />
 </timestep>
 <timestep time="125.00">
  <vehicle id="v5" x="185.79" y="30.49" speed="13.89" />
  <vehicle id="v6" x="64.74" y="36.10" speed="13.89" />
  <vehicle id="v7" x="167.58" y="15.07" speed="22.22" />
  <vehicle id="v8" x="-255.26" y="42.31" speed="22.22" />
 </timestep>
 <timestep time="126.00">
  <vehicle id="v5" x="199.68" y="29.95" speed="13.89" />
  <vehicle id="v6" x="78.63" y="36.17" speed="13.89" />
  <vehicle id="v7" x="189.80" y="15.06" speed="22.22" />
  <vehicle id="v8" x="-233.04" y="41.67" speed="22.22" />
 </timestep>
 <timestep time="127.00">
  <vehicle id="v5" x="213.57" y="29.93" speed="13.89" />
  <vehicle id="v6" x="92.52" y="36.50" speed="13.89" />
  <vehicle id="v7" x="212.02" y="15.24" speed="22.22" />
  <vehicle id="v8" x="-210.82" y="42.21" speed="22.22" />
 </timestep>
 <timestep time="128.00">
  <vehicle id="v5" x="227.45" y="30.08" speed="13.89" />
  <vehicle id="v6" x="106.41" y="35.97" speed="13.89" />
  <vehicle id="v7" x="234.24" y="14.98" speed="22.22" />
  <vehicle id="v8" x="-188.60" y="41.93" speed="22.22" />
  <vehicle id="v9" x="377.82" y="36.20" speed="22.22" />
 </timestep>
 <timestep time="129.00">
  <vehicle id="v5" x="241.34" y="29.81" speed="13.89" />
  <vehicle id="v6" x="120.29" y="35.66" speed="13.89" />
  <vehicle id="v7" x="256.47" y="15.32" speed="22.22" />
  <vehicle id="v8" x="-166.37" y="41.43" speed="22.22" />
  <vehicle id="v9" x="355.60" y="36.00" speed="22.22" />
 </timestep>
 <timestep time="130.00">
  <vehicle id="v5" x="255.23" y="30.08" speed="13.89" />
  <vehicle id="v6" x="134.18" y="36.25" speed="13.89" />
  <vehicle id="v7" x="278.69" y="14.70" speed="22.22" />
  <vehicle id="v8" x="-144.15" y="41.58" speed="22.22" />
  <vehicle id="v9" x="333.38" y="35.79" speed="22.22" />
 </timestep>
 <timestep time="131.00">
  <vehicle id="v5" x="269.12" y="29.61" speed="13.89" />
  <vehicle id="v6" x="148.07" y="36.33" speed="13.89" />
  <vehicle id="v7" x="300.91" y="14.41" speed="22.22" />
  <vehicle id="v8" x="-121.93" y="42.49" speed="22.22" />
  <vehicle id="v9" x="311.16" y="36.30" speed="22.22" />
 </timestep>
 <timestep time="132.00">
  <vehicle id="v5" x="283.01" y="30.25" speed="13.89" />
  <vehicle id="v6" x="161.96" y="35.91" speed="13.89" />
  <vehicle id="v7" x="323.13" y="15.16" speed="22.22" />
  <vehicle id="v8" x="-99.71" y="41.85" speed="22.22" />
  <vehicle id="v9" x="288.93" y="35.99" speed="22.22" />
 </timestep>
 <timestep time="133.00">
  <vehicle id="v5" x="296.90" y="29.50" speed="13.89" />
  <vehicle id="v6" x="175.85" y="36.01" speed="13.89" />
  <vehicle id="v7" x="345.36" y="15.17" speed="22.22" />
  <vehicle id="v8" x="-77.49" y="42.13" speed="22.22" />
  <vehicle id="v9" x="266.71" y="36.39" speed="22.22" />
 </timestep>
 <timestep time="134.00">
  <vehicle id="v5" x="310.79" y="30.02" speed="13.89" />
  <vehicle id="v6" x="189.74" y="36.02" speed="13.89" />
  <vehicle id="v7" x="367.58" y="14.67" speed="22.22" />
  <vehicle id="v8" x="-55.26" y="42.34" speed="22.22" />
  <vehicle id="v9" x="244.49" y="35.82" speed="22.22" />
 </timestep>
 <timestep time="135.00">
  <vehicle id="v5" x="324.68" y="30.09" speed="13.89" />
  <vehicle id="v6" x="203.63" y="35.76" speed="13.89" />
  <vehicle id="v7" x="389.80" y="15.09" speed="22.22" />
  <vehicle id="v8" x="-33.04" y="41.98" speed="22.22" />
  <vehicle id="v9" x="222.27" y="36.10" speed="22.22" />
  <vehicle id="v10" x="379.62" y="29.74" speed="13.89" />
 </timestep>
 <timestep time="136.00">
  <vehicle id="v5" x="338.57" y="30.39" speed="13.89" />
  <vehicle id="v6" x="217.52" y="35.56" speed="13.89" />
  <vehicle id="v8" x="-10.82" y="41.76" speed="22.22" />
  <vehicle id="v9" x="200.05" y="35.63" speed="22.22" />
  <vehicle id="v10" x="365.73" y="30.09" speed="13.89" />
  <vehicle id="v11" x="380.93" y="42.17" speed="10.00" />
  <vehicle id="v12" x="-277.81" y="29.38" speed="22.22" />
 </timestep>
 <timestep time="137.00">
  <vehicle id="v5" x="352.45" y="30.03" speed="13.89" />
  <vehicle id="v6" x="231.41" y="36.13" speed="13.89" />
  <vehicle id="v8" x="11.40" y="42.22" speed="22.22" />
  <vehicle id="v9" x="177.82" y="35.84" speed="22.22" />
  <vehicle id="v10" x="351.85" y="29.92" speed="13.89" />
  <vehicle id="v11" x="370.93" y="41.65" speed="10.00" />
  <vehicle id="v12" x="-255.59" y="30.11" speed="22.22" />
 </timestep>
 <timestep time="138.00">
  <vehicle id="v5" x="366.34" y="29.83" speed="13.89" />
  <vehicle id="v6" x="245.29" y="36.18" speed="13.89" />
  <vehicle id="v8" x="33.63" y="42.15" speed="22.22" />
  <vehicle id="v9" x="155.60" y="35.57" speed="22.22" />
  <vehicle id="v10" x="337.96" y="29.69" speed="13.89" />
  <vehicle id="v11" x="360.93" y="41.93" speed="10.00" />
  <vehicle id="v12" x="-233.37" y="29.91" speed="22.22" />
 </timestep>
 <timestep time="139.00">
  <vehicle id="v5" x="380.23" y="29.46" speed="13.89" />
  <vehicle id="v6" x="259.18" y="36.19" speed="13.89" />
  <vehicle id="v8" x="55.85" y="41.86" speed="22.22" />
  <vehicle id="v9" x="133.38" y="35.92" speed="22.22" />
  <vehicle id="v10" x="324.07" y="29.54" speed="13.89" />
  <vehicle id="v11" x="350.93" y="42.64" speed="10.00" />
  <vehicle id="v12" x="-211.14" y="29.90" speed="22.22" />
 </timestep>
 <timestep time="140.00">
  <vehicle id="v5" x="394.12" y="30.14" speed="13.89" />
  <vehicle id="v6" x="273.07" y="35.47" speed="13.89" />
  <vehicle id="v8" x="78.07" y="41.51" speed="22.22" />
  <vehicle id="v9" x="111.16" y="35.97" speed="22.22" />
  <vehicle id="v10" x="310.18" y="29.54" speed="13.89" />
  <vehicle id="v11" x="340.93" y="41.57" speed="10.00" />
  <vehicle id="v12" x="-188.92" y="29.93" speed="22.22" />
 </timestep>
 <timestep time="141.00">
  <vehicle id="v6" x="286.96" y="35.79" speed="13.89" />
  <vehicle id="v8" x="100.29" y="42.08" speed="22.22" />
  <vehicle id="v9" x="88.93" y="36.09" speed="22.22" />
  <vehicle id="v10" x="296.29" y="30.08" speed="13.89" />
  <vehicle id="v11" x="330.93" y="41.89" speed="10.00" />
  <vehicle id="v12" x="-166.70" y="30.07" speed="22.22" />
 </timestep>
 <timestep time="142.00">
  <vehicle id="v6" x="300.85" y="36.21" speed="13.89" />
  <vehicle id="v8" x="122.51" y="42.48" speed="22.22" />
  <vehicle id="v9" x="66.71" y="36.07" speed="22.22" />
  <vehicle id="v10" x="282.40" y="29.46" speed="13.89" />
  <vehicle id="v11" x="320.93" y="42.16" speed="10.00" />
  <vehicle id="v12" x="-144.48" y="30.28" speed="22.22" />
 </timestep>
 <timestep time="143.00">
  <vehicle id="v6" x="314.74" y="35.65" speed="13.89" />
  <vehicle id="v8" x="144.74" y="41.80" speed="22.22" />
  <vehicle id="v9" x="44.49" y="36.51" speed="22.22" />
  <vehicle id="v10" x="268.51" y="29.44" speed="13.89" />
  <vehicle id="v11" x="310.93" y="42.11" speed="10.00" />
  <vehicle id="v12" x="-122.25" y="29.51" speed="22.22" />
 </timestep>
 <timestep time="144.00">
  <vehicle id="v6" x="328.63" y="35.87" speed="13.89" />
  <vehicle id="v8" x="166.96" y="41.51" speed="22.22" />
  <vehicle id="v9" x="22.27" y="36.15" speed="22.22" />
  <vehicle id="v10" x="254.62" y="30.17" speed="13.89" />
  <vehicle id="v11" x="300.93" y="41.61" speed="10.00" />
  <vehicle id="v12" x="-100.03" y="29.53" speed="22.22" />
 </timestep>
 <timestep time="145.00">
  <vehicle id="v6" x="342.52" y="35.91" speed="13.89" />
  <vehicle id="v8" x="189.18" y="42.19" speed="22.22" />
  <vehicle id="v9" x="0.05" y="36.26" speed="22.22" />
  <vehicle id="v10" x="240.73" y="30.20" speed="13.89" />
  <vehicle id="v11" x="290.93" y="41.93" speed="10.00" />
  <vehicle id="v12" x="-77.81" y="29.73" speed="22.22" />
 </timestep>
 <timestep time="146.00">